                                                                                     
                             WELCOME TO ABACUS v3.0                                  
                                                                                     
               'Atomic-orbital Based Ab-initio Computation at UStc'                  
                                                                                     
                     Website: http://abacus.ustc.edu.cn/                             
                                                                                     
    Version: Parallel, in development
    Processor Number is 8
    Start Time is Mon Mar 20 00:20:22 2023
                                                                                     
 ------------------------------------------------------------------------------------

 READING GENERAL INFORMATION
                           global_out_dir = OUT.ABACUS/
                           global_in_card = INPUT
                               pseudo_dir = 
                              orbital_dir = 
                                    DRANK = 1
                                    DSIZE = 8
                                   DCOLOR = 1
                                    GRANK = 1
                                    GSIZE = 1
 The esolver type has been set to : ksdft_lcao




 >>>>>>>>>>>>>>>>>>>>>>>>>>>>>>>>>>>>>>>>>>>>>>>>>>>>>>>>>>>>>>>>>>>>>>
 |                                                                    |
 | Reading atom information in unitcell:                              |
 | From the input file and the structure file we know the number of   |
 | different elments in this unitcell, then we list the detail        |
 | information for each element, especially the zeta and polar atomic |
 | orbital number for each element. The total atom number is counted. |
 | We calculate the nearest atom distance for each atom and show the  |
 | Cartesian and Direct coordinates for each atom. We list the file   |
 | address for atomic orbitals. The volume and the lattice vectors    |
 | in real and reciprocal space is also shown.                        |
 |                                                                    |
 <<<<<<<<<<<<<<<<<<<<<<<<<<<<<<<<<<<<<<<<<<<<<<<<<<<<<<<<<<<<<<<<<<<<<<




 READING UNITCELL INFORMATION
                                    ntype = 2
                 atom label for species 1 = Li
                 atom label for species 2 = Cl
                  lattice constant (Bohr) = 1.88973
              lattice constant (Angstrom) = 1

 READING ATOM TYPE 1
                               atom label = Li
                      L=0, number of zeta = 4
                      L=1, number of zeta = 1
             number of atom for this type = 32
                      start magnetization = FALSE
                      start magnetization = FALSE
                      start magnetization = FALSE
                      start magnetization = FALSE
                      start magnetization = FALSE
                      start magnetization = FALSE
                      start magnetization = FALSE
                      start magnetization = FALSE
                      start magnetization = FALSE
                      start magnetization = FALSE
                      start magnetization = FALSE
                      start magnetization = FALSE
                      start magnetization = FALSE
                      start magnetization = FALSE
                      start magnetization = FALSE
                      start magnetization = FALSE
                      start magnetization = FALSE
                      start magnetization = FALSE
                      start magnetization = FALSE
                      start magnetization = FALSE
                      start magnetization = FALSE
                      start magnetization = FALSE
                      start magnetization = FALSE
                      start magnetization = FALSE
                      start magnetization = FALSE
                      start magnetization = FALSE
                      start magnetization = FALSE
                      start magnetization = FALSE
                      start magnetization = FALSE
                      start magnetization = FALSE
                      start magnetization = FALSE
                      start magnetization = FALSE

 READING ATOM TYPE 2
                               atom label = Cl
                      L=0, number of zeta = 2
                      L=1, number of zeta = 2
                      L=2, number of zeta = 1
             number of atom for this type = 32
                      start magnetization = FALSE
                      start magnetization = FALSE
                      start magnetization = FALSE
                      start magnetization = FALSE
                      start magnetization = FALSE
                      start magnetization = FALSE
                      start magnetization = FALSE
                      start magnetization = FALSE
                      start magnetization = FALSE
                      start magnetization = FALSE
                      start magnetization = FALSE
                      start magnetization = FALSE
                      start magnetization = FALSE
                      start magnetization = FALSE
                      start magnetization = FALSE
                      start magnetization = FALSE
                      start magnetization = FALSE
                      start magnetization = FALSE
                      start magnetization = FALSE
                      start magnetization = FALSE
                      start magnetization = FALSE
                      start magnetization = FALSE
                      start magnetization = FALSE
                      start magnetization = FALSE
                      start magnetization = FALSE
                      start magnetization = FALSE
                      start magnetization = FALSE
                      start magnetization = FALSE
                      start magnetization = FALSE
                      start magnetization = FALSE
                      start magnetization = FALSE
                      start magnetization = FALSE

                        TOTAL ATOM NUMBER = 64

 CARTESIAN COORDINATES ( UNIT = 1.88973 Bohr ).
         atom                   x                   y                   z                 mag                  vx                  vy                  vz
     tauc_Li1       3.01681999999             1.77597             4.37873                   0                   0                   0                   0
     tauc_Li2       3.47660000001             5.23243       2.05957000001                   0                   0                   0                   0
     tauc_Li3      0.908510000006       3.90744000001             4.56133                   0                   0                   0                   0
     tauc_Li4             1.45547            11.80453       0.89670999999                   0                   0                   0                   0
     tauc_Li5       9.58599000001       4.38418999999       1.31574999999                   0                   0                   0                   0
     tauc_Li6             5.33635              11.086       4.46604000001                   0                   0                   0                   0
     tauc_Li7             7.53108             3.19151             10.8854                   0                   0                   0                   0
     tauc_Li8             6.20144              2.2749             2.29226                   0                   0                   0                   0
     tauc_Li9               10.86             11.2809       4.03153000001                   0                   0                   0                   0
    tauc_Li10       8.72296000001             1.91404             5.01236                   0                   0                   0                   0
    tauc_Li11      0.567140000001       5.94286000001             11.2922                   0                   0                   0                   0
    tauc_Li12             4.56436       1.51683000001             10.9397                   0                   0                   0                   0
    tauc_Li13             6.47417       6.48432000001       2.26679000001                   0                   0                   0                   0
    tauc_Li14             2.67649             9.86711             5.62938                   0                   0                   0                   0
    tauc_Li15              10.525       6.89520999999       4.55820999999                   0                   0                   0                   0
    tauc_Li16       7.31790999999             10.8239             10.7546                   0                   0                   0                   0
    tauc_Li17             9.98168             8.34648       1.34799000001                   0                   0                   0                   0
    tauc_Li18             8.55005       9.02160000001       5.95048000001                   0                   0                   0                   0
    tauc_Li19      0.229560000006       2.27927000001             10.6177                   0                   0                   0                   0
    tauc_Li20       5.35173999999             4.64974       5.89709000001                   0                   0                   0                   0
    tauc_Li21             2.77623       2.83911999999             8.65057                   0                   0                   0                   0
    tauc_Li22      0.722660000009       0.78088000001             7.23018                   0                   0                   0                   0
    tauc_Li23             9.32377       4.62854999999             7.16868                   0                   0                   0                   0
    tauc_Li24              7.0462       1.65734999999       7.19937999999                   0                   0                   0                   0
    tauc_Li25       9.46563000001      0.303749999995      0.945680000005                   0                   0                   0                   0
    tauc_Li26      0.332119999997              9.5063             8.83283                   0                   0                   0                   0
    tauc_Li27             2.15335              5.7907       7.99947000001                   0                   0                   0                   0
    tauc_Li28       3.67903999999             11.0368             8.96262                   0                   0                   0                   0
    tauc_Li29       5.68956000001             7.47681       6.72703999999                   0                   0                   0                   0
    tauc_Li30       4.38374000001       7.94228999999             10.6475                   0                   0                   0                   0
    tauc_Li31             9.46514             7.37079       8.86446999999                   0                   0                   0                   0
    tauc_Li32       9.83566999999             11.7661       9.57714000001                   0                   0                   0                   0
     tauc_Cl1             2.40263              3.4438             3.15593                   0                   0                   0                   0
     tauc_Cl2             4.71432       5.62464000001             3.99601                   0                   0                   0                   0
     tauc_Cl3             5.02722       1.62164000001             4.70153                   0                   0                   0                   0
     tauc_Cl4             2.01218             2.40381             6.74421                   0                   0                   0                   0
     tauc_Cl5             11.3425       5.35052999999             5.74131                   0                   0                   0                   0
     tauc_Cl6             5.73025       3.70553999999       0.70593999999                   0                   0                   0                   0
     tauc_Cl7       8.40485000001              2.8764             2.43455                   0                   0                   0                   0
     tauc_Cl8             10.2865       2.52149000001             11.2694                   0                   0                   0                   0
     tauc_Cl9               8.497       7.00645999999       2.73857999999                   0                   0                   0                   0
    tauc_Cl10             11.2011     0.0880299999972             2.05881                   0                   0                   0                   0
    tauc_Cl11             4.15535             7.02362      0.824879999997                   0                   0                   0                   0
    tauc_Cl12       2.06075000001             10.4234       7.60313999999                   0                   0                   0                   0
    tauc_Cl13       2.84183000001             11.2346              4.0393                   0                   0                   0                   0
    tauc_Cl14       5.11946000001              9.4655       6.20651999999                   0                   0                   0                   0
    tauc_Cl15       6.79920999999      0.749649999999            11.79382                   0                   0                   0                   0
    tauc_Cl16             11.2431       6.60439000001      0.791669999997                   0                   0                   0                   0
    tauc_Cl17             10.9902       8.95219999999       4.58074999999                   0                   0                   0                   0
    tauc_Cl18             2.66309             1.24239             11.4643                   0                   0                   0                   0
    tauc_Cl19               1.502             4.24863             10.0009                   0                   0                   0                   0
    tauc_Cl20       4.58981000001             1.26528             8.80842                   0                   0                   0                   0
    tauc_Cl21             4.17519       5.64115000001       7.14292999999                   0                   0                   0                   0
    tauc_Cl22       7.53446000001       3.25663999999       6.13639999999                   0                   0                   0                   0
    tauc_Cl23       8.18598000001      0.507069999999             8.64081                   0                   0                   0                   0
    tauc_Cl24             10.5838             1.54594             5.84851                   0                   0                   0                   0
    tauc_Cl25     0.0525899999908      0.206660000003       9.59309999999                   0                   0                   0                   0
    tauc_Cl26       1.53698999999       7.84113999999             9.74525                   0                   0                   0                   0
    tauc_Cl27       5.13503999999              9.5846       9.80476000001                   0                   0                   0                   0
    tauc_Cl28       9.50581000001             10.0921             11.4187                   0                   0                   0                   0
    tauc_Cl29             8.14839             10.9837       4.15793000001                   0                   0                   0                   0
    tauc_Cl30             10.3621       9.23838999999             8.34472                   0                   0                   0                   0
    tauc_Cl31       9.08894000001             5.61878             9.58466                   0                   0                   0                   0
    tauc_Cl32             8.15206       7.23734000001             6.57717                   0                   0                   0                   0


 READING ORBITAL FILE NAMES FOR LCAO
 orbital file: Li_gga_8au_100Ry_4s1p.orb
 orbital file: Cl_gga_8au_100Ry_2s2p1d.orb

                          Volume (Bohr^3) = 11252.031496
                             Volume (A^3) = 1667.37704712

 Lattice vectors: (Cartesian coordinate: in unit of a_0)
              +11.858                  +0                  +0
                   +0             +11.858                  +0
                   +0                  +0             +11.858
 Reciprocal vectors: (Cartesian coordinate: in unit of 2 pi/a_0)
     +0.0843312531624                  -0                  +0
                   +0    +0.0843312531624                  -0
                   +0                  -0    +0.0843312531624




 >>>>>>>>>>>>>>>>>>>>>>>>>>>>>>>>>>>>>>>>>>>>>>>>>>>>>>>>>>>>>>>>>>>>>>
 |                                                                    |
 | Reading pseudopotentials files:                                    |
 | The pseudopotential file is in UPF format. The 'NC' indicates that |
 | the type of pseudopotential is 'norm conserving'. Functional of    |
 | exchange and correlation is decided by 4 given parameters in UPF   |
 | file.  We also read in the 'core correction' if there exists.      |
 | Also we can read the valence electrons number and the maximal      |
 | angular momentum used in this pseudopotential. We also read in the |
 | trail wave function, trail atomic density and local-pseudopotential|
 | on logrithmic grid. The non-local pseudopotential projector is also|
 | read in if there is any.                                           |
 |                                                                    |
 <<<<<<<<<<<<<<<<<<<<<<<<<<<<<<<<<<<<<<<<<<<<<<<<<<<<<<<<<<<<<<<<<<<<<<




                PAO radial cut off (Bohr) = 15

 Read in pseudopotential file is Li_ONCV_PBE-1.2.upf
                     pseudopotential type = NC
          exchange-correlation functional = PBE
                 nonlocal core correction = 0
                        valence electrons = 3
                                     lmax = 1
                           number of zeta = 0
                     number of projectors = 4
                           L of projector = 0
                           L of projector = 0
                           L of projector = 1
                           L of projector = 1
                PAO radial cut off (Bohr) = 15

 Read in pseudopotential file is Cl_ONCV_PBE-1.2.upf
                     pseudopotential type = NC
          exchange-correlation functional = PBE
                 nonlocal core correction = 0
                        valence electrons = 7
                                     lmax = 1
                           number of zeta = 0
                     number of projectors = 4
                           L of projector = 0
                           L of projector = 0
                           L of projector = 1
                           L of projector = 1
     initial pseudo atomic orbital number = 0
                                   NLOCAL = 640

%%%%%%%%%%%%%%%%%%%%%%%%%%%%%%%%%%%%%%%%%%%%%%%%%%%%%%%%%%%%%%%%%%%%%%%
 Warning: number valence electrons > 1 for Li: [He] 2s1
 Please make sure the pseudopential file is what you need
%%%%%%%%%%%%%%%%%%%%%%%%%%%%%%%%%%%%%%%%%%%%%%%%%%%%%%%%%%%%%%%%%%%%%%%
                  




 >>>>>>>>>>>>>>>>>>>>>>>>>>>>>>>>>>>>>>>>>>>>>>>>>>>>>>>>>>>>>>>>>>>>>>
 |                                                                    |
 | Setup plane waves of charge/potential:                             |
 | Use the energy cutoff and the lattice vectors to generate the      |
 | dimensions of FFT grid. The number of FFT grid on each processor   |
 | is 'nrxx'. The number of plane wave basis in reciprocal space is   |
 | different for charege/potential and wave functions. We also set    |
 | the 'sticks' for the parallel of FFT. The number of plane waves    |
 | is 'npw' in each processor.                                        |
 <<<<<<<<<<<<<<<<<<<<<<<<<<<<<<<<<<<<<<<<<<<<<<<<<<<<<<<<<<<<<<<<<<<<<<





 SETUP THE PLANE WAVE BASIS
 energy cutoff for charge/potential (unit:Ry) = 400
          [fft grid for charge/potential] = 144, 144, 144
                      [fft grid division] = 2, 2, 2
      [big fft grid for charge/potential] = 72, 72, 72
                                     nbxx = 46656
                                     nrxx = 373248

 SETUP PLANE WAVES FOR CHARGE/POTENTIAL
                    number of plane waves = 1520003
                         number of sticks = 15989

 PARALLEL PW FOR CHARGE/POTENTIAL
     PROC   COLUMNS(POT)             PW
        1           1998         190000
        2           1998         190000
        3           1999         190001
        4           1999         190001
        5           1999         190001
        6           1999         190001
        7           1999         190001
        8           1998         189998
 --------------- sum -------------------
        8          15989        1520003
                            number of |g| = 4220
                                  max |g| = 36.1704126821
                                  min |g| = 0.0142235205199

 SETUP THE ELECTRONS NUMBER
            electron number of element Li = 3
      total electron number of element Li = 96
            electron number of element Cl = 7
      total electron number of element Cl = 224
            AUTOSET number of electrons:  = 320
 DONE : SETUP UNITCELL Time : 0.126024624339 (SEC)





 >>>>>>>>>>>>>>>>>>>>>>>>>>>>>>>>>>>>>>>>>>>>>>>>>>>>>>>>>>>>>>>>>>>>>>
 |                                                                    |
 | Setup K-points                                                     |
 | We setup the k-points according to input parameters.               |
 | The reduced k-points are set according to symmetry operations.     |
 | We treat the spin as another set of k-points.                      |
 |                                                                    |
 <<<<<<<<<<<<<<<<<<<<<<<<<<<<<<<<<<<<<<<<<<<<<<<<<<<<<<<<<<<<<<<<<<<<<<





 SETUP K-POINTS
                                    nspin = 1
                   Input type of k points = Monkhorst-Pack(Gamma)
                                   nkstot = 1
                               nkstot_ibz = 1
      IBZ             DirectX             DirectY             DirectZ              Weight    ibz2bz
        1                   0                   0                   0                   1         0
                               nkstot now = 1

  KPOINTS            DIRECT_X            DIRECT_Y            DIRECT_Z              WEIGHT
        1                   0                   0                   0                   1

           k-point number in this process = 1
       minimum distributed K point number = 1

  KPOINTS         CARTESIAN_X         CARTESIAN_Y         CARTESIAN_Z              WEIGHT
        1                   0                   0                   0                   2

  KPOINTS            DIRECT_X            DIRECT_Y            DIRECT_Z              WEIGHT
        1                   0                   0                   0                   2
 DONE : INIT K-POINTS Time : 0.13612182915 (SEC)

                           occupied bands = 160
                                   NLOCAL = 640
                                   NBANDS = 193
                                   NBANDS = 193




 >>>>>>>>>>>>>>>>>>>>>>>>>>>>>>>>>>>>>>>>>>>>>>>>>>>>>>>>>>>>>>>>>>>>>>
 |                                                                    |
 | Setup numerical orbitals:                                          |
 | This part setup: numerical atomic orbitals, non-local projectors   |
 | and neutral potential (1D). The atomic orbitals information        |
 | including the radius, angular momentum and zeta number.            |
 | The neutral potential is the sum of local part of pseudopotential  |
 | and potential given by atomic charge, they will cancel out beyond  |
 | a certain radius cutoff, because the Z/r character.                |
 |                                                                    |
 <<<<<<<<<<<<<<<<<<<<<<<<<<<<<<<<<<<<<<<<<<<<<<<<<<<<<<<<<<<<<<<<<<<<<<





 SETUP ONE DIMENSIONAL ORBITALS/POTENTIAL
                        delta k  (1/Bohr) = 0.01
                        delta r    (Bohr) = 0.01
                        dr_uniform (Bohr) = 0.001
                        rmax       (Bohr) = 30
                                    kmesh = 1005
      ORBITAL  L  N      nr      dr    RCUT  CHECK_UNIT    NEW_UNIT
            1  0  0     801    0.01       8           1           1
            2  0  1     801    0.01       8           1           1
            3  0  2     801    0.01       8           1           1
            4  0  3     801    0.01       8           1           1
            5  1  0     801    0.01       8           1           1
      ORBITAL  L  N      nr      dr    RCUT  CHECK_UNIT    NEW_UNIT
            1  0  0     801    0.01       8           1           1
            2  0  1     801    0.01       8           1           1
            3  1  0     801    0.01       8           1           1
            4  1  1     801    0.01       8           1           1
            5  2  0     801    0.01       8           1           1
 SET NONLOCAL PSEUDOPOTENTIAL PROJECTORS
 SET NONLOCAL PSEUDOPOTENTIAL PROJECTORS
 max number of nonlocal projetors among all species is 4

 SETUP THE TWO-CENTER INTEGRATION TABLES

 SETUP THE DIVISION OF H/S MATRIX
 divide the H&S matrix using 2D block algorithms.
                                     nb2d = 32
                  trace_loc_row dimension = 640
                  trace_loc_col dimension = 640
                                     nloc = 51200

 -------------------------------------------
 STEP OF MOLECULAR DYNAMICS : 0
 -------------------------------------------
              searching radius is (Bohr)) = 22.6
         searching radius unit is (Bohr)) = 1.89
126974
                                 init_chg = atomic
 DONE : INIT SCF Time : 2.9293 (SEC)


 LCAO ALGORITHM --------------- ION=   1  ELEC=   1--------------------------------

 Density error is 0.104045211662

 LCAO ALGORITHM --------------- ION=   1  ELEC=   2--------------------------------

 Density error is 0.0481338533727

 LCAO ALGORITHM --------------- ION=   1  ELEC=   3--------------------------------

 Density error is 0.0224310425716

 LCAO ALGORITHM --------------- ION=   1  ELEC=   4--------------------------------

 Density error is 0.00219024035778

 LCAO ALGORITHM --------------- ION=   1  ELEC=   5--------------------------------

 Density error is 0.000798474555268

 LCAO ALGORITHM --------------- ION=   1  ELEC=   6--------------------------------

 Density error is 0.000141945284089

 LCAO ALGORITHM --------------- ION=   1  ELEC=   7--------------------------------

 Density error is 2.404543974e-05

 LCAO ALGORITHM --------------- ION=   1  ELEC=   8--------------------------------

 Density error is 8.15914927433e-06

 LCAO ALGORITHM --------------- ION=   1  ELEC=   9--------------------------------

 Density error is 1.8213659096e-06

 LCAO ALGORITHM --------------- ION=   1  ELEC=  10--------------------------------

 Density error is 5.88925309702e-07

 LCAO ALGORITHM --------------- ION=   1  ELEC=  11--------------------------------

 Density error is 7.23978509076e-08

 charge density convergence is achieved
 final etot is -19448.1248715 eV

 ><><><><><><><><><><><><><><><><><><><><><><><><><><><><><><><><><><><

    TOTAL-FORCE (eV/Angstrom)

 ><><><><><><><><><><><><><><><><><><><><><><><><><><><><><><><><><><><

     atom              x              y              z
      Li1         -0.81221311         -0.58547241         +0.31181997
      Li2         +0.35225247         -0.17551992        +0.080617213
      Li3         -0.64910687        +0.039426587         +0.87868332
      Li4         -0.36524702         -0.10043102         +0.40312822
      Li5         +0.32653528         +0.29737497         -0.19321808
      Li6         +0.15167226         +0.11081915         +0.16403513
      Li7         +0.11899379         -0.36485419         +0.36914253
      Li8        +0.021554828         -0.23749912         +0.38127095
      Li9         -0.58788883          -0.3542862          +1.0154759
     Li10         -0.16900687         -0.58407563          -1.5031344
     Li11          +1.5954978         -0.32377447          -2.1324971
     Li12          +1.8770214         +0.28063585         +0.47655382
     Li13          -1.1178593         -0.34787992        +0.072322264
     Li14         +0.38112551         -0.58411948         +0.12520063
     Li15         -0.72881848         +0.11124251         -0.48663915
     Li16        -0.073557261         -0.61282053         -0.65331561
     Li17         -0.37006907         +0.34583896        +0.088619192
     Li18          +0.8364177            +2.73898          -1.1525466
     Li19          +2.2229876         -0.28551547          -0.7713895
     Li20          +1.0886527           -1.420587          -1.4848251
     Li21         +0.53085891         -0.18419203         +0.73241247
     Li22         -0.69813219         -0.74754028         +0.25567928
     Li23        +0.061883748          +0.2192411        +0.037006174
     Li24          -1.0653379          -1.5674615          +1.0125877
     Li25          -1.0487747         +0.31935693         -0.61211704
     Li26          +2.2738825         +0.45804851         +0.67952646
     Li27         -0.67236649         +0.37700606         +0.61223457
     Li28         +0.12293148        +0.074013144        -0.071676267
     Li29         +0.19974914         -0.29869101       +0.0015617445
     Li30          -1.0523158          -1.2028275         +0.72100358
     Li31         +0.15551494          +1.7005146         -0.83339702
     Li32         +0.73504822         -0.81807833         +0.56171974
      Cl1         -0.35917755        +0.094432401          -1.0065255
      Cl2         +0.75537329         +0.46163029         -0.46733655
      Cl3          +1.9640686        +0.071561657        -0.062258662
      Cl4        +0.047987575         +0.67156513          -1.2011435
      Cl5         +0.30812481         -0.74240337         +0.52044972
      Cl6         -0.39400546         +0.67824674         -0.84460795
      Cl7         +0.42603919         -0.30938789         +0.67063557
      Cl8          -2.7727835         +0.66000553           +1.214608
      Cl9         +0.57293139        -0.014168517         -0.01102802
     Cl10          +1.5463902         +0.15345868         -0.25263039
     Cl11         +0.24580024        +0.074943112       -0.0078804745
     Cl12         -0.55057386         +0.37665188         -0.10527239
     Cl13         -0.31925808         +0.29452715         -0.98976643
     Cl14         -0.18664696         +0.52947736         -0.41367577
     Cl15         -0.15193631         +0.51099428         +0.56616706
     Cl16          -1.2643391        +0.076322193          +1.8347131
     Cl17         +0.29996033         +0.73732959        -0.027667936
     Cl18          -1.6020591         -0.18200032         +0.67852668
     Cl19         +0.13499858      +0.00050943109          -0.3827788
     Cl20         +0.34749556         +0.55222199         -0.81844869
     Cl21         -0.67740548         +0.90278945          +1.7390384
     Cl22        -0.010164792          +2.5143882         -0.11926869
     Cl23           -1.286017         +0.25401817         -0.44976552
     Cl24          +1.2469495         -0.47511621         +0.17640043
     Cl25          +1.0160455         +0.20544668         -0.26948014
     Cl26         +0.41237682         -0.87917106         +0.13572858
     Cl27           +1.173977          +1.0790649         -0.27840648
     Cl28          -0.4615392         +0.15751887         +0.47637406
     Cl29         -0.26932118         +0.26299704         +0.30792998
     Cl30          -2.4211257          +0.1036266          -1.1372649
     Cl31         -0.54630249          -2.5312519         +0.62816175
     Cl32         -0.86774927          -2.5671005         +0.81062857


 ><><><><><><><><><><><><><><><><><><><><><><><><><><><><><><><><><><><

 TOTAL-STRESS (KBAR)

 ><><><><><><><><><><><><><><><><><><><><><><><><><><><><><><><><><><><

              +14.314396              +0.068950              -1.646207
               +0.068950              +6.742624              -3.705349
               -1.646207              -3.705349              +5.270647
 TOTAL-PRESSURE: +8.775889 KBAR


 ------------------------------------------------------------------------------------------------
 Energy              Potential           Kinetic             Temperature         Pressure (KBAR)     
 -714.43581          -714.70515          +0.26933765         +900                +13.47086           
 ------------------------------------------------------------------------------------------------

output Pressure for check!
Virtual Pressure is +13.47086 Kbar 
Virial Term is +8.7758888 Kbar 
Kenetic Term is +4.6949716 Kbar 


 ><><><><><><><><><><><><><><><><><><><><><><><><><><><><><><><><><><><

 MD STRESS (KBAR)

 ><><><><><><><><><><><><><><><><><><><><><><><><><><><><><><><><><><><

+18.794244     -0.52413627    -1.7678503     
-0.52413627    +11.08091      -4.5877631     
-1.7678503     -4.5877631     +10.537428     



 -------------------------------------------
 STEP OF MOLECULAR DYNAMICS : 1
 -------------------------------------------
 NEW-OLD atomic charge density approx. for the potential !
 searching radius is (Bohr))              = +22.61
 searching radius unit is (Bohr))         = +1.8897261
+128283
 DONE : INIT SCF Time : +86.8683 (SEC)


 LCAO ALGORITHM --------------- ION=+2    ELEC=+1  --------------------------------

 Density error is +0.00194971195194

 LCAO ALGORITHM --------------- ION=+2    ELEC=+2  --------------------------------

 Density error is +0.00104866350605

 LCAO ALGORITHM --------------- ION=+2    ELEC=+3  --------------------------------

 Density error is +0.000140639874642

 LCAO ALGORITHM --------------- ION=+2    ELEC=+4  --------------------------------

 Density error is +4.3120822842e-05

 LCAO ALGORITHM --------------- ION=+2    ELEC=+5  --------------------------------

 Density error is +1.55118826487e-05

 LCAO ALGORITHM --------------- ION=+2    ELEC=+6  --------------------------------

 Density error is +2.51291890798e-06

 LCAO ALGORITHM --------------- ION=+2    ELEC=+7  --------------------------------

 Density error is +7.76689350635e-07

 LCAO ALGORITHM --------------- ION=+2    ELEC=+8  --------------------------------

 Density error is +1.43574008957e-07

 LCAO ALGORITHM --------------- ION=+2    ELEC=+9  --------------------------------

 Density error is +4.25087183757e-08

 charge density convergence is achieved
 final etot is -19448.1012289 eV

 ><><><><><><><><><><><><><><><><><><><><><><><><><><><><><><><><><><><

    TOTAL-FORCE (eV/Angstrom)

 ><><><><><><><><><><><><><><><><><><><><><><><><><><><><><><><><><><><

 atom    x              y              z              
 Li1     -0.89226627         -0.5565371          +0.29519435         
 Li2     +0.32846873         -0.15808864         +0.023578248        
 Li3     -0.56526438         -0.00032398597      +0.80110041         
 Li4     -0.36285142         -0.057093946        +0.38876916         
 Li5     +0.29693756         +0.25543221         -0.17076908         
 Li6     +0.1663293          +0.10768008         +0.16507694         
 Li7     +0.13285279         -0.36269763         +0.37423584         
 Li8     +0.018166554        -0.29464904         +0.42758719         
 Li9     -0.59885143         -0.3869133          +1.0680855          
 Li10    -0.21626436         -0.57740542         -1.5269852          
 Li11    +1.6366048          -0.35039093         -2.1719912          
 Li12    +1.7907918          +0.25832269         +0.52442624         
 Li13    -1.1026376          -0.33754246         +0.06902505         
 Li14    +0.37108356         -0.6349671          +0.20685072         
 Li15    -0.71663788         +0.1749125          -0.49492513         
 Li16    -0.12121476         -0.59461836         -0.63949614         
 Li17    -0.34054339         +0.27905916         +0.093940426        
 Li18    +0.85237569         +2.7995618          -1.1745531          
 Li19    +2.1072721          -0.28077707         -0.72962382         
 Li20    +1.0436724          -1.3943776          -1.3940763          
 Li21    +0.51158211         -0.14918676         +0.76048005         
 Li22    -0.76540281         -0.82314574         +0.29123589         
 Li23    +0.072081846        +0.22646435         +0.048632665        
 Li24    -1.0953932          -1.5960915          +1.0191567          
 Li25    -0.99327161         +0.32898914         -0.57405022         
 Li26    +2.0756247          +0.4494104          +0.62570736         
 Li27    -0.68032815         +0.36237984         +0.62380442         
 Li28    +0.21059204         -0.03728341         -0.0020045663       
 Li29    +0.16403181         -0.16842473         -0.017764322        
 Li30    -1.0806882          -1.2505095          +0.75361163         
 Li31    +0.20661066         +1.9554237          -0.92312387         
 Li32    +0.92860682         -0.79084449         +0.55882583         
 Cl1     -0.43028345         +0.098598366        -0.94048704         
 Cl2     +0.77882362         +0.49011448         -0.46600892         
 Cl3     +2.0498984          +0.07982868         -0.042528208        
 Cl4     +0.084668147        +0.72222188         -1.2304931          
 Cl5     +0.2907554          -0.73141157         +0.52508241         
 Cl6     -0.40663599         +0.73615809         -0.880647           
 Cl7     +0.47102392         -0.2626237          +0.64494022         
 Cl8     -2.666507           +0.6284112          +1.1782009          
 Cl9     +0.56896887         -0.0089054178       -0.020389654        
 Cl10    +1.5172517          +0.15698481         -0.35253032         
 Cl11    +0.24462452         +0.063282472        -0.014118858        
 Cl12    -0.55871021         +0.36346582         -0.15575205         
 Cl13    -0.3378855          +0.33824951         -1.054821           
 Cl14    -0.15325559         +0.43647116         -0.39301458         
 Cl15    -0.13180547         +0.46271969         +0.53037575         
 Cl16    -1.3317975          +0.12379335         +1.8862277          
 Cl17    +0.28627266         +0.68442208         -0.03379569         
 Cl18    -1.5428804          -0.1952697          +0.68922407         
 Cl19    +0.1386345          +0.032532229        -0.39728484         
 Cl20    +0.38779195         +0.57768211         -0.84199617         
 Cl21    -0.61361977         +0.83653676         +1.6798115          
 Cl22    -0.0047005899       +2.5580429          -0.17652222         
 Cl23    -1.2781901          +0.2443791          -0.43947117         
 Cl24    +1.2912111          -0.4717094          +0.18915755         
 Cl25    +0.86383936         +0.18731292         -0.27358869         
 Cl26    +0.42218123         -0.87641098         +0.13919474         
 Cl27    +1.1265073          +1.2017045          -0.32164845         
 Cl28    -0.45306466         +0.16878234         +0.52448244         
 Cl29    -0.27041548         +0.26130021         +0.31171463         
 Cl30    -2.2638693          +0.09087535         -1.0959489          
 Cl31    -0.58106681         -2.7525097          +0.70869298         
 Cl32    -0.87983461         -2.6407966          +0.8239803          


 ><><><><><><><><><><><><><><><><><><><><><><><><><><><><><><><><><><><

 TOTAL-STRESS (KBAR)

 ><><><><><><><><><><><><><><><><><><><><><><><><><><><><><><><><><><><

 +13.695070             +0.402781              -1.438526              
 +0.402781              +6.939796              -4.173990              
 -1.438526              -4.173990              +5.615242              
 TOTAL-PRESSURE: +8.750036 KBAR


 ------------------------------------------------------------------------------------------------
 Energy              Potential           Kinetic             Temperature         Pressure (KBAR)     
 -714.43581          -714.70428          +0.26847482         +897.11684          +13.429967          
 ------------------------------------------------------------------------------------------------

output Pressure for check!
Virtual Pressure is +13.429967 Kbar 
Virial Term is +8.7500361 Kbar 
Kenetic Term is +4.6799312 Kbar 


 ><><><><><><><><><><><><><><><><><><><><><><><><><><><><><><><><><><><

 MD STRESS (KBAR)

 ><><><><><><><><><><><><><><><><><><><><><><><><><><><><><><><><><><><

+18.24986      -0.27531159    -1.5359339     
-0.27531159    +11.188395     -5.0029812     
-1.5359339     -5.0029812     +10.851647     



 -------------------------------------------
 STEP OF MOLECULAR DYNAMICS : 2
 -------------------------------------------
 NEW-OLD atomic charge density approx. for the potential !
 searching radius is (Bohr))              = +22.61
 searching radius unit is (Bohr))         = +1.8897261
+128283
 DONE : INIT SCF Time : +155.902 (SEC)


 LCAO ALGORITHM --------------- ION=+3    ELEC=+1  --------------------------------

 Density error is +0.00194896910038

 LCAO ALGORITHM --------------- ION=+3    ELEC=+2  --------------------------------

 Density error is +0.00104964836408

 LCAO ALGORITHM --------------- ION=+3    ELEC=+3  --------------------------------

 Density error is +0.000140777593225

 LCAO ALGORITHM --------------- ION=+3    ELEC=+4  --------------------------------

 Density error is +4.27456537965e-05

 LCAO ALGORITHM --------------- ION=+3    ELEC=+5  --------------------------------

 Density error is +1.5506972221e-05

 LCAO ALGORITHM --------------- ION=+3    ELEC=+6  --------------------------------

 Density error is +2.54670486471e-06

 LCAO ALGORITHM --------------- ION=+3    ELEC=+7  --------------------------------

 Density error is +7.82106377765e-07

 LCAO ALGORITHM --------------- ION=+3    ELEC=+8  --------------------------------

 Density error is +1.46397862721e-07

 LCAO ALGORITHM --------------- ION=+3    ELEC=+9  --------------------------------

 Density error is +4.27359093426e-08

 charge density convergence is achieved
 final etot is -19448.1514196 eV

 ><><><><><><><><><><><><><><><><><><><><><><><><><><><><><><><><><><><

    TOTAL-FORCE (eV/Angstrom)

 ><><><><><><><><><><><><><><><><><><><><><><><><><><><><><><><><><><><

 atom    x              y              z              
 Li1     -0.96317711         -0.52537173         +0.2791141          
 Li2     +0.30009929         -0.14376386         -0.035938093        
 Li3     -0.47503465         -0.043315891        +0.72058938         
 Li4     -0.35788469         -0.011724105        +0.37353218         
 Li5     +0.26987744         +0.21610435         -0.15086285         
 Li6     +0.17945854         +0.10438406         +0.16600182         
 Li7     +0.14945356         -0.35811473         +0.37706686         
 Li8     +0.014826598        -0.34967524         +0.47285949         
 Li9     -0.60429621         -0.41401427         +1.1087536          
 Li10    -0.26418251         -0.56436425         -1.5406397          
 Li11    +1.6335099          -0.35323008         -2.1603818          
 Li12    +1.6810495          +0.23426688         +0.5743605          
 Li13    -1.0776246          -0.32492825         +0.067726085        
 Li14    +0.36086728         -0.68387218         +0.28664455         
 Li15    -0.70246069         +0.23044731         -0.49790555         
 Li16    -0.17162188         -0.57176279         -0.62369064         
 Li17    -0.31182658         +0.21373992         +0.099949195        
 Li18    +0.8538887          +2.7952693          -1.1744667          
 Li19    +1.9501512          -0.27143255         -0.66791044         
 Li20    +0.98143452         -1.3555073          -1.2786328          
 Li21    +0.48907633         -0.11454542         +0.77759502         
 Li22    -0.82857909         -0.8914994          +0.32310042         
 Li23    +0.080613831        +0.23402121         +0.061241805        
 Li24    -1.1197627          -1.5876983          +0.99784943         
 Li25    -0.92683194         +0.3393484          -0.52869119         
 Li26    +1.8364641          +0.43745029         +0.56296494         
 Li27    -0.68248826         +0.34657445         +0.62996442         
 Li28    +0.28239891         -0.13838308         +0.060856446        
 Li29    +0.12913221         -0.046953045        -0.034193705        
 Li30    -1.0947877          -1.2685538          +0.76563366         
 Li31    +0.23920443         +2.1604073          -0.99295294         
 Li32    +1.0829321          -0.75731914         +0.54048833         
 Cl1     -0.50377068         +0.10170337         -0.87144197         
 Cl2     +0.80190977         +0.52129894         -0.4643639          
 Cl3     +2.1247237          +0.088203542        -0.025437223        
 Cl4     +0.12106331         +0.76952902         -1.249314           
 Cl5     +0.26922681         -0.71140793         +0.52712893         
 Cl6     -0.4206841          +0.79218561         -0.91453473         
 Cl7     +0.51241177         -0.21904424         +0.62112418         
 Cl8     -2.5214797          +0.58945941         +1.1247002          
 Cl9     +0.55527511         -0.0053648005       -0.030586264        
 Cl10    +1.4734013          +0.15824375         -0.44704238         
 Cl11    +0.24230597         +0.049996979        -0.015059465        
 Cl12    -0.561233           +0.35040207         -0.20776165         
 Cl13    -0.35567163         +0.37892537         -1.1175158          
 Cl14    -0.1213453          +0.35094989         -0.37428149         
 Cl15    -0.10840824         +0.40787529         +0.4931615          
 Cl16    -1.3581771          +0.14762019         +1.8935147          
 Cl17    +0.2723916          +0.63289014         -0.039569229        
 Cl18    -1.4609543          -0.20877859         +0.69215217         
 Cl19    +0.14593543         +0.063441402        -0.41469946         
 Cl20    +0.43113757         +0.604543           -0.86089709         
 Cl21    -0.53477623         +0.75776221         +1.6011588          
 Cl22    -0.0013215959       +2.5641502          -0.21914506         
 Cl23    -1.2463697          +0.22172358         -0.41157205         
 Cl24    +1.3273214          -0.46820168         +0.19925057         
 Cl25    +0.72895598         +0.1694511          -0.27593947         
 Cl26    +0.43528396         -0.87442612         +0.14230264         
 Cl27    +1.0792762          +1.2861285          -0.34417139         
 Cl28    -0.44448005         +0.17745768         +0.57321827         
 Cl29    -0.27145973         +0.25968526         +0.31583367         
 Cl30    -2.0636812          +0.098291911        -1.0486512          
 Cl31    -0.60442102         -2.9393118          +0.77287144         
 Cl32    -0.87626639         -2.6513673          +0.81554091         


 ><><><><><><><><><><><><><><><><><><><><><><><><><><><><><><><><><><><

 TOTAL-STRESS (KBAR)

 ><><><><><><><><><><><><><><><><><><><><><><><><><><><><><><><><><><><

 +12.819018             +0.726018              -1.139799              
 +0.726018              +6.946396              -4.600777              
 -1.139799              -4.600777              +5.802361              
 TOTAL-PRESSURE: +8.522592 KBAR


 ------------------------------------------------------------------------------------------------
 Energy              Potential           Kinetic             Temperature         Pressure (KBAR)     
 -714.43581          -714.70613          +0.27031455         +903.26435          +13.234592          
 ------------------------------------------------------------------------------------------------

output Pressure for check!
Virtual Pressure is +13.234592 Kbar 
Virial Term is +8.5225918 Kbar 
Kenetic Term is +4.7120005 Kbar 


 ><><><><><><><><><><><><><><><><><><><><><><><><><><><><><><><><><><><

 MD STRESS (KBAR)

 ><><><><><><><><><><><><><><><><><><><><><><><><><><><><><><><><><><><

+17.50062      -0.019317752   -1.2304161     
-0.019317752   +11.152574     -5.3796641     
-1.2304161     -5.3796641     +11.050583     



 -------------------------------------------
 STEP OF MOLECULAR DYNAMICS : 3
 -------------------------------------------
 NEW-OLD atomic charge density approx. for the potential !
 searching radius is (Bohr))              = +22.61
 searching radius unit is (Bohr))         = +1.8897261
+127892
 DONE : INIT SCF Time : +225.235 (SEC)


 LCAO ALGORITHM --------------- ION=+4    ELEC=+1  --------------------------------

 Density error is +0.00197030515644

 LCAO ALGORITHM --------------- ION=+4    ELEC=+2  --------------------------------

 Density error is +0.00105965732862

 LCAO ALGORITHM --------------- ION=+4    ELEC=+3  --------------------------------

 Density error is +0.000144237231047

 LCAO ALGORITHM --------------- ION=+4    ELEC=+4  --------------------------------

 Density error is +4.27431724796e-05

 LCAO ALGORITHM --------------- ION=+4    ELEC=+5  --------------------------------

 Density error is +1.57106787558e-05

 LCAO ALGORITHM --------------- ION=+4    ELEC=+6  --------------------------------

 Density error is +2.62683802899e-06

 LCAO ALGORITHM --------------- ION=+4    ELEC=+7  --------------------------------

 Density error is +7.96853819809e-07

 LCAO ALGORITHM --------------- ION=+4    ELEC=+8  --------------------------------

 Density error is +1.49217642477e-07

 LCAO ALGORITHM --------------- ION=+4    ELEC=+9  --------------------------------

 Density error is +4.32805514316e-08

 charge density convergence is achieved
 final etot is -19448.2725431 eV

 ><><><><><><><><><><><><><><><><><><><><><><><><><><><><><><><><><><><

    TOTAL-FORCE (eV/Angstrom)

 ><><><><><><><><><><><><><><><><><><><><><><><><><><><><><><><><><><><

 atom    x              y              z              
 Li1     -1.0220976          -0.49283961         +0.26424887         
 Li2     +0.26712124         -0.13280055         -0.097930984        
 Li3     -0.38058953         -0.088874909        +0.63899815         
 Li4     -0.35115185         +0.035193103        +0.35797803         
 Li5     +0.24545651         +0.17965825         -0.13368325         
 Li6     +0.19090388         +0.10101114         +0.16676942         
 Li7     +0.16880159         -0.35103377         +0.37755323         
 Li8     +0.011215759        -0.40167303         +0.51631489         
 Li9     -0.60648447         -0.43495897         +1.1359784          
 Li10    -0.31100599         -0.5456024          -1.5440319          
 Li11    +1.5867037          -0.33558094         -2.0977552          
 Li12    +1.5520312          +0.20963012         +0.62338971         
 Li13    -1.0437409          -0.31027027         +0.068309537        
 Li14    +0.35084361         -0.72972771         +0.36246189         
 Li15    -0.68600981         +0.27726931         -0.49537317         
 Li16    -0.2241676          -0.54502441         -0.60650496         
 Li17    -0.28401824         +0.15009712         +0.10669285         
 Li18    +0.84101032         +2.7263648          -1.1522672          
 Li19    +1.7613656          -0.25904991         -0.58934738         
 Li20    +0.90651233         -1.3079599          -1.1432455          
 Li21    +0.46293342         -0.080203202        +0.78349344         
 Li22    -0.88577435         -0.95052104         +0.35085961         
 Li23    +0.087498364        +0.2418692          +0.074930596        
 Li24    -1.1393683          -1.540879           +0.94695457         
 Li25    -0.85159671         +0.35037065         -0.47731034         
 Li26    +1.5698236          +0.42383989         +0.49484634         
 Li27    -0.67868234         +0.32951606         +0.63062541         
 Li28    +0.33936828         -0.23054884         +0.11703835         
 Li29    +0.095084976        +0.064565036        -0.047600814        
 Li30    -1.093447           -1.2559907          +0.75838795         
 Li31    +0.25088096         +2.3010214          -1.0379732          
 Li32    +1.1988847          -0.71593006         +0.50547384         
 Cl1     -0.57766879         +0.10355717         -0.80155637         
 Cl2     +0.8246114          +0.555196           -0.46200336         
 Cl3     +2.1862131          +0.096949581        -0.011456265        
 Cl4     +0.1557188          +0.81145403         -1.2568474          
 Cl5     +0.24349761         -0.68234112         +0.52636128         
 Cl6     -0.43576624         +0.8453959          -0.94523464         
 Cl7     +0.54996301         -0.17906011         +0.59947351         
 Cl8     -2.3475525          +0.54452632         +1.0569677          
 Cl9     +0.53270851         -0.0033282157       -0.041627226        
 Cl10    +1.417311           +0.1566556          -0.53361346         
 Cl11    +0.23894802         +0.03548884         -0.011424175        
 Cl12    -0.5581607          +0.33788644         -0.26019128         
 Cl13    -0.37278597         +0.41546469         -1.1763997          
 Cl14    -0.091084178        +0.27358906         -0.35758641         
 Cl15    -0.081769331        +0.347266           +0.45538533         
 Cl16    -1.3438257          +0.14973512         +1.8565349          
 Cl17    +0.25824847         +0.58320278         -0.044809379        
 Cl18    -1.3604341          -0.22338701         +0.68846692         
 Cl19    +0.15668402         +0.094134917        -0.43439684         
 Cl20    +0.47775683         +0.63242544         -0.87405817         
 Cl21    -0.44538388         +0.67097396         +1.5078343          
 Cl22    -0.00025714964      +2.5324255          -0.24590369         
 Cl23    -1.1892117          +0.18472229         -0.36378449         
 Cl24    +1.354028           -0.46448474         +0.20604204         
 Cl25    +0.61046806         +0.15145538         -0.27691952         
 Cl26    +0.45159588         -0.87214255         +0.14419885         
 Cl27    +1.0296715          +1.3323562          -0.34728291         
 Cl28    -0.43578344         +0.18310326         +0.62295684         
 Cl29    -0.27231381         +0.25826878         +0.32023653         
 Cl30    -1.8324942          +0.12468305         -0.99893403         
 Cl31    -0.61441135         -3.0780716          +0.81611987         
 Cl32    -0.85682646         -2.5990378          +0.78517016         


 ><><><><><><><><><><><><><><><><><><><><><><><><><><><><><><><><><><><

 TOTAL-STRESS (KBAR)

 ><><><><><><><><><><><><><><><><><><><><><><><><><><><><><><><><><><><

 +11.734603             +1.029943              -0.760306              
 +1.029943              +6.748238              -4.968953              
 -0.760306              -4.968953              +5.829274              
 TOTAL-PRESSURE: +8.104038 KBAR


 ------------------------------------------------------------------------------------------------
 Energy              Potential           Kinetic             Temperature         Pressure (KBAR)     
 -714.43583          -714.71058          +0.27474766         +918.0777           +12.893315          
 ------------------------------------------------------------------------------------------------

output Pressure for check!
Virtual Pressure is +12.893315 Kbar 
Virial Term is +8.1040385 Kbar 
Kenetic Term is +4.7892764 Kbar 


 ><><><><><><><><><><><><><><><><><><><><><><><><><><><><><><><><><><><

 MD STRESS (KBAR)

 ><><><><><><><><><><><><><><><><><><><><><><><><><><><><><><><><><><><

+16.585829     +0.23683601    -0.86039692    
+0.23683601    +10.965186     -5.7059196     
-0.86039692    -5.7059196     +11.128929     



 -------------------------------------------
 STEP OF MOLECULAR DYNAMICS : 4
 -------------------------------------------
 NEW-OLD atomic charge density approx. for the potential !
 searching radius is (Bohr))              = +22.61
 searching radius unit is (Bohr))         = +1.8897261
+128333
 DONE : INIT SCF Time : +294.333 (SEC)


 LCAO ALGORITHM --------------- ION=+5    ELEC=+1  --------------------------------

 Density error is +0.00200878876182

 LCAO ALGORITHM --------------- ION=+5    ELEC=+2  --------------------------------

 Density error is +0.00107724502925

 LCAO ALGORITHM --------------- ION=+5    ELEC=+3  --------------------------------

 Density error is +0.000150589126333

 LCAO ALGORITHM --------------- ION=+5    ELEC=+4  --------------------------------

 Density error is +4.3118152399e-05

 LCAO ALGORITHM --------------- ION=+5    ELEC=+5  --------------------------------

 Density error is +1.60736098887e-05

 LCAO ALGORITHM --------------- ION=+5    ELEC=+6  --------------------------------

 Density error is +2.74048349082e-06

 LCAO ALGORITHM --------------- ION=+5    ELEC=+7  --------------------------------

 Density error is +8.19195553833e-07

 LCAO ALGORITHM --------------- ION=+5    ELEC=+8  --------------------------------

 Density error is +1.51708140328e-07

 LCAO ALGORITHM --------------- ION=+5    ELEC=+9  --------------------------------

 Density error is +4.41188859103e-08

 charge density convergence is achieved
 final etot is -19448.4565312 eV

 ><><><><><><><><><><><><><><><><><><><><><><><><><><><><><><><><><><><

    TOTAL-FORCE (eV/Angstrom)

 ><><><><><><><><><><><><><><><><><><><><><><><><><><><><><><><><><><><

 atom    x              y              z              
 Li1     -1.0665389          -0.45967671         +0.2511046          
 Li2     +0.22955894         -0.12535945         -0.16237216         
 Li3     -0.28379614         -0.13644052         +0.55791862         
 Li4     -0.34332263         +0.083199162        +0.34267188         
 Li5     +0.22361533         +0.14619435         -0.11932062         
 Li6     +0.20050668         +0.097655923        +0.1673674          
 Li7     +0.19078064         -0.34144959         +0.37567786         
 Li8     +0.0069102062       -0.4497169          +0.55703673         
 Li9     -0.60574174         -0.44934237         +1.1486413          
 Li10    -0.35488755         -0.52188807         -1.5372373          
 Li11    +1.4994695          -0.30250473         -1.9874216          
 Li12    +1.4079979          +0.1854704          +0.66828481         
 Li13    -1.0020679          -0.29377144         +0.070599167        
 Li14    +0.34136628         -0.77135841         +0.43214507         
 Li15    -0.66708562         +0.31516089         -0.48698555         
 Li16    -0.27816916         -0.5152326          -0.58850817         
 Li17    -0.25719796         +0.08862489         +0.11418736         
 Li18    +0.81480772         +2.5980703          -1.1095141          
 Li19    +1.551409           -0.24531764         -0.49769815         
 Li20    +0.82381359         -1.2557195          -0.99337913         
 Li21    +0.43280669         -0.0459518          +0.77826475         
 Li22    -0.93517211         -0.99829088         +0.37407945         
 Li23    +0.092769284        +0.24997152         +0.089775531        
 Li24    -1.1556938          -1.4563108          +0.86630964         
 Li25    -0.76976646         +0.36201432         -0.42124379         
 Li26    +1.2886489          +0.41009207         +0.42491272         
 Li27    -0.6688997          +0.3110521          +0.62567186         
 Li28    +0.38264342         -0.31505699         +0.16680052         
 Li29    +0.061738026        +0.16531622         -0.058065453        
 Li30    -1.0762669          -1.2136459          +0.73400303         
 Li31    +0.24024674         +2.3655134          -1.0547153          
 Li32    +1.2786311          -0.66568653         +0.45321893         
 Cl1     -0.6502014          +0.10399613         -0.73266451         
 Cl2     +0.84692101         +0.59172656         -0.45837571         
 Cl3     +2.2322937          +0.10631198         -0.00091136178      
 Cl4     +0.18710214         +0.84595907         -1.2526528          
 Cl5     +0.21362737         -0.64440391         +0.5226878          
 Cl6     -0.45143652         +0.89484758         -0.97168544         
 Cl7     +0.58352306         -0.1429561          +0.58018285         
 Cl8     -2.1552856          +0.49512071         +0.97849173         
 Cl9     +0.50228088         -0.0025454825       -0.053452834        
 Cl10    +1.3514877          +0.15171204         -0.60995533         
 Cl11    +0.23463493         +0.020143694        -0.0039035561       
 Cl12    -0.54964069         +0.3263108          -0.31208435         
 Cl13    -0.38948484         +0.44676144         -1.2299705          
 Cl14    -0.062545042        +0.20468906         -0.34291775         
 Cl15    -0.051892526        +0.2817388          +0.41794276         
 Cl16    -1.29208            +0.13377394         +1.7785936          
 Cl17    +0.24375397         +0.53567517         -0.049371475        
 Cl18    -1.2459288          -0.23977893         +0.67952896         
 Cl19    +0.17064019         +0.12541998         -0.45580467         
 Cl20    +0.52786345         +0.66084513         -0.88045079         
 Cl21    -0.35036231         +0.58062579         +1.405              
 Cl22    -0.0013845208       +2.4647059          -0.25685296         
 Cl23    -1.1066991          +0.13262098         -0.29465666         
 Cl24    +1.3701733          -0.46045788         +0.20886264         
 Cl25    +0.5070007          +0.13302942         -0.27683246         
 Cl26    +0.47097318         -0.86824388         +0.14389756         
 Cl27    +0.97573546         +1.342257           -0.33322982         
 Cl28    -0.42702784         +0.18521185         +0.67411825         
 Cl29    -0.27288276         +0.2572396          +0.32475262         
 Cl30    -1.5818031          +0.16905371         -0.95033725         
 Cl31    -0.6101249          -3.1578951          +0.83533486         
 Cl32    -0.8223443          -2.4891098          +0.73450665         


 ><><><><><><><><><><><><><><><><><><><><><><><><><><><><><><><><><><><

 TOTAL-STRESS (KBAR)

 ><><><><><><><><><><><><><><><><><><><><><><><><><><><><><><><><><><><

 +10.489521             +1.307758              -0.316162              
 +1.307758              +6.346560              -5.266875              
 -0.316162              -5.266875              +5.702558              
 TOTAL-PRESSURE: +7.512879 KBAR


 ------------------------------------------------------------------------------------------------
 Energy              Potential           Kinetic             Temperature         Pressure (KBAR)     
 -714.43587          -714.71734          +0.28147282         +940.55005          +12.419386          
 ------------------------------------------------------------------------------------------------

output Pressure for check!
Virtual Pressure is +12.419386 Kbar 
Virial Term is +7.5128794 Kbar 
Kenetic Term is +4.9065065 Kbar 


 ><><><><><><><><><><><><><><><><><><><><><><><><><><><><><><><><><><><

 MD STRESS (KBAR)

 ><><><><><><><><><><><><><><><><><><><><><><><><><><><><><><><><><><><

+15.541979     +0.48711892    -0.43941308    
+0.48711892    +10.628262     -5.9734165     
-0.43941308    -5.9734165     +11.087917     



 -------------------------------------------
 STEP OF MOLECULAR DYNAMICS : 5
 -------------------------------------------
 NEW-OLD atomic charge density approx. for the potential !
 searching radius is (Bohr))              = +22.61
 searching radius unit is (Bohr))         = +1.8897261
+127766
 DONE : INIT SCF Time : +363.618 (SEC)


 LCAO ALGORITHM --------------- ION=+6    ELEC=+1  --------------------------------

 Density error is +0.00205832813522

 LCAO ALGORITHM --------------- ION=+6    ELEC=+2  --------------------------------

 Density error is +0.00110033659706

 LCAO ALGORITHM --------------- ION=+6    ELEC=+3  --------------------------------

 Density error is +0.000158967817162

 LCAO ALGORITHM --------------- ION=+6    ELEC=+4  --------------------------------

 Density error is +4.38840066435e-05

 LCAO ALGORITHM --------------- ION=+6    ELEC=+5  --------------------------------

 Density error is +1.65368442403e-05

 LCAO ALGORITHM --------------- ION=+6    ELEC=+6  --------------------------------

 Density error is +2.87279035635e-06

 LCAO ALGORITHM --------------- ION=+6    ELEC=+7  --------------------------------

 Density error is +8.45995958293e-07

 LCAO ALGORITHM --------------- ION=+6    ELEC=+8  --------------------------------

 Density error is +1.5401481579e-07

 LCAO ALGORITHM --------------- ION=+6    ELEC=+9  --------------------------------

 Density error is +4.52162100333e-08

 charge density convergence is achieved
 final etot is -19448.6908876 eV

 ><><><><><><><><><><><><><><><><><><><><><><><><><><><><><><><><><><><

    TOTAL-FORCE (eV/Angstrom)

 ><><><><><><><><><><><><><><><><><><><><><><><><><><><><><><><><><><><

 atom    x              y              z              
 Li1     -1.094585           -0.42653304         +0.24006066         
 Li2     +0.18750385         -0.12155309         -0.22916538         
 Li3     -0.18643515         -0.18540299         +0.47861705         
 Li4     -0.33492421         +0.13185082         +0.32806161         
 Li5     +0.20417583         +0.11579167         -0.10773951         
 Li6     +0.20816199         +0.094372421        +0.16770913         
 Li7     +0.21522859         -0.32933388         +0.37138098         
 Li8     +0.0014519892       -0.4928792          +0.59411395         
 Li9     -0.60049318         -0.45685113         +1.1461239          
 Li10    -0.39400439         -0.49406381         -1.5203338          
 Li11    +1.377472           -0.26012156         -1.8353178          
 Li12    +1.2529748          +0.16270841         +0.70597375         
 Li13    -0.95386053         -0.27577359         +0.074317888        
 Li14    +0.33269793         -0.80757652         +0.49365438         
 Li15    -0.64556245         +0.34428078         -0.47262037         
 Li16    -0.3329234          -0.48317983         -0.57030482         
 Li17    -0.23138353         +0.029502316        +0.1224043          
 Li18    +0.77731555         +2.4197824          -1.0491245          
 Li19    +1.330334           -0.23192867         -0.3970042          
 Li20    +0.73803732         -1.2021534          -0.83461932         
 Li21    +0.39845919         -0.011521717        +0.76228279         
 Li22    -0.97512544         -1.033072           +0.39246278         
 Li23    +0.096431942        +0.25825642         +0.10576067         
 Li24    -1.1705746          -1.3366644          +0.75721533         
 Li25    -0.68350011         +0.3742051          -0.36187219         
 Li26    +1.0043337          +0.39728027         +0.35640935         
 Li27    -0.65322071         +0.29091964         +0.6151037          
 Li28    +0.41349933         -0.39314324         +0.21054118         
 Li29    +0.028798051        +0.25487926         -0.065725907        
 Li30    -1.0436044          -1.1440567          +0.69526895         
 Li31    +0.2069849          +2.3464973          -1.0416518          
 Li32    +1.3252496          -0.60595729         +0.38388083         
 Cl1     -0.71988129         +0.10289532         -0.66623064         
 Cl2     +0.86883639         +0.63070263         -0.45280776         
 Cl3     +2.2613027          +0.11648637         +0.0060450332       
 Cl4     +0.21369981         +0.87114574         -1.2366315          
 Cl5     +0.1797686          -0.59803526         +0.51613072         
 Cl6     -0.46721316         +0.93962371         -0.99284528         
 Cl7     +0.61301609         -0.11090051         +0.56335196         
 Cl8     -1.9547887          +0.44274771         +0.89297076         
 Cl9     +0.46507437         -0.0027263014       -0.06598821         
 Cl10    +1.2783501          +0.14305123         -0.67424042         
 Cl11    +0.22942861         +0.0043272544       +0.0068591725       
 Cl12    -0.53596799         +0.31601138         -0.36264213         
 Cl13    -0.40592494         +0.47176038         -1.2767524          
 Cl14    -0.035721238        +0.14421598         -0.33015231         
 Cl15    -0.018762371        +0.21214016         +0.38172272         
 Cl16    -1.2087149          +0.10449808         +1.665812           
 Cl17    +0.22880071         +0.49045039         -0.053146463        
 Cl18    -1.1221113          -0.25842663         +0.66677715         
 Cl19    +0.1875029          +0.15798224         -0.47841206         
 Cl20    +0.58164138         +0.68920359         -0.87918961         
 Cl21    -0.2545335          +0.49073225         +1.2977312          
 Cl22    -0.0042995564       +2.3647315          -0.25326934         
 Cl23    -1.0001122          +0.065313983        -0.2037178          
 Cl24    +1.3747708          -0.45605838         +0.20705335         
 Cl25    +0.41684055         +0.11395755         -0.2758916          
 Cl26    +0.49325338         -0.86114536         +0.14029371         
 Cl27    +0.91631328         +1.3193447          -0.3049549          
 Cl28    -0.41834761         +0.18318329         +0.72716367         
 Cl29    -0.27309888         +0.25688476         +0.32910564         
 Cl30    -1.3215615          +0.23074637         -0.90610984         
 Cl31    -0.59190511         -3.1723286          +0.82940974         
 Cl32    -0.77456887         -2.3310764          +0.66669178         


 ><><><><><><><><><><><><><><><><><><><><><><><><><><><><><><><><><><><

 TOTAL-STRESS (KBAR)

 ><><><><><><><><><><><><><><><><><><><><><><><><><><><><><><><><><><><

 +9.128127              +1.555354              +0.172441              
 +1.555354              +5.758829              -5.489949              
 +0.172441              -5.489949              +5.437147              
 TOTAL-PRESSURE: +6.774701 KBAR


 ------------------------------------------------------------------------------------------------
 Energy              Potential           Kinetic             Temperature         Pressure (KBAR)     
 -714.43593          -714.72595          +0.29002599         +969.13071          +11.830302          
 ------------------------------------------------------------------------------------------------

output Pressure for check!
Virtual Pressure is +11.830302 Kbar 
Virial Term is +6.774701 Kbar 
Kenetic Term is +5.0556014 Kbar 


 ><><><><><><><><><><><><><><><><><><><><><><><><><><><><><><><><><><><

 MD STRESS (KBAR)

 ><><><><><><><><><><><><><><><><><><><><><><><><><><><><><><><><><><><

+14.401377     +0.7270794     +0.015937292   
+0.7270794     +10.154676     -6.1788787     
+0.015937292   -6.1788787     +10.934854     



 -------------------------------------------
 STEP OF MOLECULAR DYNAMICS : 6
 -------------------------------------------
 NEW-OLD atomic charge density approx. for the potential !
 searching radius is (Bohr))              = +22.61
 searching radius unit is (Bohr))         = +1.8897261
+127497
 DONE : INIT SCF Time : +433.054 (SEC)


 LCAO ALGORITHM --------------- ION=+7    ELEC=+1  --------------------------------

 Density error is +0.00211443129143

 LCAO ALGORITHM --------------- ION=+7    ELEC=+2  --------------------------------

 Density error is +0.00112625574998

 LCAO ALGORITHM --------------- ION=+7    ELEC=+3  --------------------------------

 Density error is +0.000168511973059

 LCAO ALGORITHM --------------- ION=+7    ELEC=+4  --------------------------------

 Density error is +4.49997532342e-05

 LCAO ALGORITHM --------------- ION=+7    ELEC=+5  --------------------------------

 Density error is +1.70432571234e-05

 LCAO ALGORITHM --------------- ION=+7    ELEC=+6  --------------------------------

 Density error is +3.01394985858e-06

 LCAO ALGORITHM --------------- ION=+7    ELEC=+7  --------------------------------

 Density error is +8.75096755561e-07

 LCAO ALGORITHM --------------- ION=+7    ELEC=+8  --------------------------------

 Density error is +1.56649487666e-07

 LCAO ALGORITHM --------------- ION=+7    ELEC=+9  --------------------------------

 Density error is +4.6570548644e-08

 charge density convergence is achieved
 final etot is -19448.9600298 eV

 ><><><><><><><><><><><><><><><><><><><><><><><><><><><><><><><><><><><

    TOTAL-FORCE (eV/Angstrom)

 ><><><><><><><><><><><><><><><><><><><><><><><><><><><><><><><><><><><

 atom    x              y              z              
 Li1     -1.1049148          -0.39386097         +0.23122153         
 Li2     +0.14119087         -0.12141873         -0.29811611         
 Li3     -0.089970546        -0.23526025         +0.40208855         
 Li4     -0.32644106         +0.18068123         +0.31458851         
 Li5     +0.18696386         +0.088437174        -0.098854994        
 Li6     +0.21373261         +0.091149544        +0.16777414         
 Li7     +0.24195796         -0.31475363         +0.36470489         
 Li8     -0.0055859993       -0.53032194         +0.62664456         
 Li9     -0.59101209         -0.4574237          +1.128401           
 Li10    -0.42667163         -0.46295489         -1.4936701          
 Li11    +1.2277791          -0.21519968         -1.6492206          
 Li12    +1.0908712          +0.14204936         +0.73375831         
 Li13    -0.90043318         -0.2565997          +0.079192047        
 Li14    +0.32509015         -0.83726173         +0.54512102         
 Li15    -0.62133962         +0.36506832         -0.45250239         
 Li16    -0.3875827          -0.44960999         -0.55232423         
 Li17    -0.20662218         -0.02731674         +0.13132211         
 Li18    +0.73115717         +2.2036191          -0.97501895         
 Li19    +1.1070767          -0.2203482          -0.29125268         
 Li20    +0.65333902         -1.1498834          -0.67223243         
 Li21    +0.35977093         +0.023421188        +0.73635231         
 Li22    -1.0042815          -1.0535376          +0.40577856         
 Li23    +0.098620096        +0.2666716          +0.12282053         
 Li24    -1.1860203          -1.1863081          +0.62228049         
 Li25    -0.59485767         +0.38686805         -0.30050224         
 Li26    +0.72613603         +0.38613199         +0.2920041          
 Li27    -0.63182539         +0.26886122         +0.59894218         
 Li28    +0.43329728         -0.46577938         +0.24859314         
 Li29    -0.0041077284       +0.33312335         -0.070819109        
 Li30    -0.99658118         -1.0511254          +0.64536418         
 Li31    +0.15193776         +2.2420808          -0.99946235         
 Li32    +1.3428352          -0.53662009         +0.29835877         
 Cl1     -0.78547019         +0.1001795          -0.60333942         
 Cl2     +0.89041574         +0.67182557         -0.44453897         
 Cl3     +2.2721998          +0.12759949         +0.0094586858       
 Cl4     +0.23418339         +0.88540012         -1.2090252          
 Cl5     +0.14222272         -0.54391523         +0.50684888         
 Cl6     -0.48253615         +0.97885123         -1.0077171          
 Cl7     +0.63846761         -0.082960624        +0.54901417         
 Cl8     -1.7548173          +0.38879988         +0.80390931         
 Cl9     +0.42221907         -0.0035796343       -0.079139925        
 Cl10    +1.2001942          +0.13045811         -0.7251981          
 Cl11    +0.22338767         -0.011613187        +0.02026375         
 Cl12    -0.51754602         +0.30726608         -0.41120377         
 Cl13    -0.42215766         +0.4895249          -1.3153668          
 Cl14    -0.010485194        +0.091896846        -0.31908691         
 Cl15    +0.017718201        +0.13928917         +0.34760843         
 Cl16    -1.1010519          +0.067131863        +1.5262406          
 Cl17    +0.21331833         +0.44756396         -0.056056201        
 Cl18    -0.99324675         -0.27955471         +0.65155828         
 Cl19    +0.20696939         +0.19241571         -0.50171928         
 Cl20    +0.63927154         +0.71679276         -0.86962724         
 Cl21    -0.16214365         +0.4046456          +1.1906125          
 Cl22    -0.008360707        +2.2377415          -0.23740765         
 Cl23    -0.87180364         -0.016610631        -0.091528933        
 Cl24    +1.3671499          -0.45127703         +0.20002455         
 Cl25    +0.33823378         +0.094120235        -0.27420467         
 Cl26    +0.51834906         -0.8489343          +0.13214903         
 Cl27    +0.85114954         +1.2684378          -0.2657633          
 Cl28    -0.40988213         +0.17636463         +0.78260753         
 Cl29    -0.27290446         +0.25758176         +0.33291785         
 Cl30    -1.0594549          +0.30949006         -0.86897024         
 Cl31    -0.56127716         -3.1204227          +0.79946598         
 Cl32    -0.71582071         -2.1370875          +0.58587947         


 ><><><><><><><><><><><><><><><><><><><><><><><><><><><><><><><><><><><

 TOTAL-STRESS (KBAR)

 ><><><><><><><><><><><><><><><><><><><><><><><><><><><><><><><><><><><

 +7.702424              +1.771263              +0.683221              
 +1.771263              +5.016183              -5.640302              
 +0.683221              -5.640302              +5.053315              
 TOTAL-PRESSURE: +5.923974 KBAR


 ------------------------------------------------------------------------------------------------
 Energy              Potential           Kinetic             Temperature         Pressure (KBAR)     
 -714.43602          -714.73584          +0.29982463         +1001.8732          +11.150381          
 ------------------------------------------------------------------------------------------------

output Pressure for check!
Virtual Pressure is +11.150381 Kbar 
Virial Term is +5.9239738 Kbar 
Kenetic Term is +5.2264068 Kbar 


 ><><><><><><><><><><><><><><><><><><><><><><><><><><><><><><><><><><><

 MD STRESS (KBAR)

 ><><><><><><><><><><><><><><><><><><><><><><><><><><><><><><><><><><><

+13.204208     +0.95376769    +0.48749214    
+0.95376769    +9.5660825     -6.3236421     
+0.48749214    -6.3236421     +10.680852     



 -------------------------------------------
 STEP OF MOLECULAR DYNAMICS : 7
 -------------------------------------------
 NEW-OLD atomic charge density approx. for the potential !
 searching radius is (Bohr))              = +22.61
 searching radius unit is (Bohr))         = +1.8897261
+127399
 DONE : INIT SCF Time : +502.356 (SEC)


 LCAO ALGORITHM --------------- ION=+8    ELEC=+1  --------------------------------

 Density error is +0.00217429616182

 LCAO ALGORITHM --------------- ION=+8    ELEC=+2  --------------------------------

 Density error is +0.00115315307119

 LCAO ALGORITHM --------------- ION=+8    ELEC=+3  --------------------------------

 Density error is +0.000178446662367

 LCAO ALGORITHM --------------- ION=+8    ELEC=+4  --------------------------------

 Density error is +4.63586643413e-05

 LCAO ALGORITHM --------------- ION=+8    ELEC=+5  --------------------------------

 Density error is +1.75436851207e-05

 LCAO ALGORITHM --------------- ION=+8    ELEC=+6  --------------------------------

 Density error is +3.15301670627e-06

 LCAO ALGORITHM --------------- ION=+8    ELEC=+7  --------------------------------

 Density error is +9.04231903641e-07

[...]
 Cl14    -0.25794322         +1.1744844          +0.1754165          
 Cl15    +0.68747771         +0.2606049          -0.25218265         
 Cl16    -0.99767106         -0.7035126          +0.13644441         
 Cl17    -0.42894148         -0.40349204         +0.61414876         
 Cl18    +0.33603481         +0.21330985         +0.26856897         
 Cl19    +0.51681497         -0.84473699         +0.50475201         
 Cl20    -0.91320082         +1.0696376          +0.56773422         
 Cl21    +0.12296341         -0.067472472        +0.25440742         
 Cl22    +0.22506932         +0.11773046         +0.1989017          
 Cl23    +0.85760637         -1.1818654          +1.3448295          
 Cl24    -0.46414895         -0.93324445         +0.058535637        
 Cl25    -1.0282211          +0.27505257         +0.16414794         
 Cl26    +0.21571412         +0.17581005         -0.60205416         
 Cl27    +0.3184436          +0.004363291        +0.04261364         
 Cl28    +0.059587667        -0.24916598         -0.4808083          
 Cl29    +0.34805482         -0.1631383          -0.18304949         
 Cl30    -0.13204708         -0.21953366         +0.34080796         
 Cl31    +0.41039343         +0.83539103         +0.59141222         
 Cl32    -0.067599457        +0.53784212         +0.19152361         


 ><><><><><><><><><><><><><><><><><><><><><><><><><><><><><><><><><><><

 TOTAL-STRESS (KBAR)

 ><><><><><><><><><><><><><><><><><><><><><><><><><><><><><><><><><><><

 -13.441109             -2.631235              -1.559556              
 -2.631235              -5.520318              -4.657748              
 -1.559556              -4.657748              -19.520463             
 TOTAL-PRESSURE: -12.827297 KBAR


 ------------------------------------------------------------------------------------------------
 Energy              Potential           Kinetic             Temperature         Pressure (KBAR)     
 -714.544            -714.79366          +0.24966236         +834.25441          -8.4752958          
 ------------------------------------------------------------------------------------------------

output Pressure for check!
Virtual Pressure is -8.4752958 Kbar 
Virial Term is -12.827297 Kbar 
Kenetic Term is +4.3520009 Kbar 


 ><><><><><><><><><><><><><><><><><><><><><><><><><><><><><><><><><><><

 MD STRESS (KBAR)

 ><><><><><><><><><><><><><><><><><><><><><><><><><><><><><><><><><><><

-8.9483073     -2.4425524     -2.8668949     
-2.4425524     -0.3245189     -4.0272503     
-2.8668949     -4.0272503     -16.153061     



 -------------------------------------------
 STEP OF MOLECULAR DYNAMICS : 500
 -------------------------------------------
 NEW-OLD atomic charge density approx. for the potential !
 searching radius is (Bohr))              = +22.61
 searching radius unit is (Bohr))         = +1.8897261
+126829
 DONE : INIT SCF Time : +33229.5 (SEC)


 LCAO ALGORITHM --------------- ION=+501  ELEC=+1  --------------------------------

 Density error is +0.00170818010256

 LCAO ALGORITHM --------------- ION=+501  ELEC=+2  --------------------------------

 Density error is +0.000935439536611

 LCAO ALGORITHM --------------- ION=+501  ELEC=+3  --------------------------------

 Density error is +0.000124085842482

 LCAO ALGORITHM --------------- ION=+501  ELEC=+4  --------------------------------

 Density error is +4.38401297521e-05

 LCAO ALGORITHM --------------- ION=+501  ELEC=+5  --------------------------------

 Density error is +1.36360422038e-05

 LCAO ALGORITHM --------------- ION=+501  ELEC=+6  --------------------------------

 Density error is +2.35084012159e-06

 LCAO ALGORITHM --------------- ION=+501  ELEC=+7  --------------------------------

 Density error is +8.28864193337e-07

 LCAO ALGORITHM --------------- ION=+501  ELEC=+8  --------------------------------

 Density error is +1.20538893231e-07

 LCAO ALGORITHM --------------- ION=+501  ELEC=+9  --------------------------------

 Density error is +4.55802108306e-08

 charge density convergence is achieved
 final etot is -19450.5423549 eV

 ><><><><><><><><><><><><><><><><><><><><><><><><><><><><><><><><><><><

    TOTAL-FORCE (eV/Angstrom)

 ><><><><><><><><><><><><><><><><><><><><><><><><><><><><><><><><><><><

 atom    x              y              z              
 Li1     +0.17127571         -0.085840764        -0.5527213          
 Li2     -0.40595357         -0.49985103         +0.43327501         
 Li3     -0.71632632         +0.045198465        +0.12668453         
 Li4     +0.12624034         +0.01594633         +1.0819604          
 Li5     +0.44629661         +1.4042077          -0.0089472384       
 Li6     -0.13219662         -0.087404538        -0.084355343        
 Li7     -0.2825226          -0.47989338         +0.046657932        
 Li8     +0.17537233         -0.5575099          +0.015560317        
 Li9     -0.12742564         +0.56593963         +0.12738927         
 Li10    +0.41015672         +0.51612396         -0.19456353         
 Li11    +0.51441825         +0.23795405         -0.29057194         
 Li12    -0.2119559          +0.035232095        -0.30379552         
 Li13    +0.042903105        +0.36484696         +0.30048027         
 Li14    +0.098140063        +0.45351348         -0.47590138         
 Li15    +0.076804184        -0.25398044         +0.41561825         
 Li16    -0.43073943         +0.36014495         -0.2009409          
 Li17    -0.30410408         -0.05811418         +0.59122581         
 Li18    +0.56217099         -0.60373885         -0.32312271         
 Li19    +0.47415382         -0.46591313         -0.55024965         
 Li20    +0.19888808         +0.083053733        -0.14255234         
 Li21    +0.12555132         -0.0054704631       -0.09596469         
 Li22    +0.018559632        -0.089711455        -0.30613267         
 Li23    -0.42445911         -0.045809503        -0.92514087         
 Li24    -0.50239199         +0.4971263          -1.4282757          
 Li25    +0.017075539        -0.75488939         +0.074086048        
 Li26    +0.36057387         -0.11565018         -0.057905283        
 Li27    -0.43609204         +0.18747198         -0.21185552         
 Li28    +0.11544301         -0.94143035         +0.049693682        
 Li29    -0.32575728         -0.93670118         +0.036041383        
 Li30    -0.29890403         +0.2821178          +0.21734823         
 Li31    +0.18666781         +0.3650743          -0.37179412         
 Li32    +0.37319863         +0.13217105         +0.1469028          
 Cl1     -0.16609027         +0.26619118         -0.32771171         
 Cl2     -0.33681633         +0.76196552         -0.51260452         
 Cl3     -0.07853568         -0.52839179         +0.14556001         
 Cl4     +0.17298142         -0.3521823          +0.3672729          
 Cl5     -0.37445555         +0.64045235         +0.17793519         
 Cl6     +0.014105312        +0.21383752         -0.44700074         
 Cl7     -0.073899411        +0.42738422         -0.071601191        
 Cl8     +0.45886501         -1.9356752          +0.39839333         
 Cl9     -0.021063594        +0.5597079          +0.36489166         
 Cl10    -0.087740305        +0.078394024        -0.62873758         
 Cl11    -0.098882102        +0.51901526         -0.41589859         
 Cl12    -0.33254756         -0.52229564         -0.17198021         
 Cl13    +1.1576138          +0.32212819         +0.081676292        
 Cl14    -0.20275236         +1.1366869          +0.13818604         
 Cl15    +0.71532846         +0.23914076         -0.26443699         
 Cl16    -0.97297566         -0.6778072          +0.13685493         
 Cl17    -0.43748907         -0.40767377         +0.59407513         
 Cl18    +0.3378555          +0.21978955         +0.28078828         
 Cl19    +0.51989228         -0.86624108         +0.52247964         
 Cl20    -0.87495297         +1.0945263          +0.56664231         
 Cl21    +0.094200868        -0.052678305        +0.24943589         
 Cl22    +0.24083247         +0.1521802          +0.23145385         
 Cl23    +0.82650383         -1.1265908          +1.2838686          
 Cl24    -0.47076167         -0.94447181         +0.03325669         
 Cl25    -1.0835754          +0.25263126         +0.15483795         
 Cl26    +0.19338721         +0.18064869         -0.60240669         
 Cl27    +0.31506321         -0.0042885761       +0.047434686        
 Cl28    +0.10843193         -0.28119802         -0.46046017         
 Cl29    +0.35565259         -0.14876989         -0.18659953         
 Cl30    -0.12854922         -0.17929812         +0.35899414         
 Cl31    +0.40977901         +0.89159284         +0.61322286         
 Cl32    -0.074467115        +0.50707564         +0.20404433         


 ><><><><><><><><><><><><><><><><><><><><><><><><><><><><><><><><><><><

 TOTAL-STRESS (KBAR)

 ><><><><><><><><><><><><><><><><><><><><><><><><><><><><><><><><><><><

 -13.483450             -2.396513              -1.592428              
 -2.396513              -5.478843              -4.591919              
 -1.592428              -4.591919              -19.632432             
 TOTAL-PRESSURE: -12.864908 KBAR


 ------------------------------------------------------------------------------------------------
 Energy              Potential           Kinetic             Temperature         Pressure (KBAR)     
 -714.54282          -714.79399          +0.25117504         +839.30907          -8.4865392          
 ------------------------------------------------------------------------------------------------

output Pressure for check!
Virtual Pressure is -8.4865392 Kbar 
Virial Term is -12.864908 Kbar 
Kenetic Term is +4.3783692 Kbar 


 ><><><><><><><><><><><><><><><><><><><><><><><><><><><><><><><><><><><

 MD STRESS (KBAR)

 ><><><><><><><><><><><><><><><><><><><><><><><><><><><><><><><><><><><

-8.9459887     -2.2000582     -2.9275132     
-2.2000582     -0.24730382    -4.0312766     
-2.9275132     -4.0312766     -16.266325     




 --------------------------------------------
 !FINAL_ETOT_IS -19450.54235488779 eV
 --------------------------------------------






  |CLASS_NAME---------|NAME---------------|TIME(Sec)-----|CALLS----|AVG------|PER%-------
                       total               +33297         1007      +33       +1e+02    %
   Driver              driver_line         +33296         1         +3.3e+04  +1e+02    %
   PW_Basis            setup_struc_factor  +177.06        501       +0.35     +0.53     %
   ORB_control         set_orb_tables      +1.7403        1         +1.7      +0.0052   %
   ORB_gen_tables      gen_tables          +1.7403        1         +1.7      +0.0052   %
   ORB_table_phi       init_Table          +1.0671        1         +1.1      +0.0032   %
   ORB_table_phi       cal_ST_Phi12_R      +1.0604        178       +0.006    +0.0032   %
   ORB_table_beta      init_Table_Beta     +0.5149        1         +0.51     +0.0015   %
   ORB_table_beta      VNL_PhiBeta_R       +0.51269       96        +0.0053   +0.0015   %
   Run_MD              md_line             +33294         1         +3.3e+04  +1e+02    %
   Nose_Hoover         setup               +83.514        1         +84       +0.25     %
   MD_func             force_stress        +33289         501       +66       +1e+02    %
   ESolver_KS_LCAO     Run                 +27863         501       +56       +84       %
   ESolver_KS_LCAO     beforescf           +472.91        501       +0.94     +1.4      %
   Vdwd3               cal_energy          +9.6925        501       +0.019    +0.029    %
   ESolver_KS_LCAO     beforesolver        +80.741        501       +0.16     +0.24     %
   ESolver_KS_LCAO     set_matrix_grid     +79.432        501       +0.16     +0.24     %
   atom_arrange        search              +2.5771        501       +0.0051   +0.0077   %
   Grid_Technique      init                +66.353        501       +0.13     +0.2      %
   Grid_BigCell        grid_expansion_index+28.506        1002      +0.028    +0.086    %
   Record_adj          for_2d              +9.539         501       +0.019    +0.029    %
   Grid_Driver         Find_atom           +8.5312        1490552   +5.7e-06  +0.026    %
   Charge              set_rho_core        +0.2148        501       +0.00043  +0.00065  %
   Charge              atomic_rho          +69.542        1001      +0.069    +0.21     %
   PW_Basis            recip2real          +312.63        28065     +0.011    +0.94     %
   PW_Basis            gathers_scatterp    +147.49        28065     +0.0053   +0.44     %
   Potential           init_pot            +126.55        501       +0.25     +0.38     %
   Potential           update_from_charge  +1204.2        5012      +0.24     +3.6      %
   Potential           cal_fixed_v         +6.9762        501       +0.014    +0.021    %
   PotLocal            cal_fixed_v         +6.7557        501       +0.013    +0.02     %
   Potential           cal_v_eff           +1197.2        5012      +0.24     +3.6      %
   H_Hartree_pw        v_hartree           +134.54        5012      +0.027    +0.4      %
   PW_Basis            real2recip          +412.5         42100     +0.0098   +1.2      %
   PW_Basis            gatherp_scatters    +177.46        42100     +0.0042   +0.53     %
   PotXC               cal_v_eff           +1055.8        5012      +0.21     +3.2      %
   XC_Functional       v_xc                +1052          5012      +0.21     +3.2      %
   H_Ewald_pw          compute_ewald       +4.6067        501       +0.0092   +0.014    %
   HSolverLCAO         solve               +26059         4511      +5.8      +78       %
   HamiltLCAO          updateHk            +13483         4511      +3        +40       %
   OperatorLCAO        init                +13326         9022      +1.5      +40       %
   Veff                contributeHk        +13326         4511      +3        +40       %
   Gint_interface      cal_gint            +26612         9523      +2.8      +80       %
   Gint_interface      cal_gint_vlocal     +11985         4511      +2.7      +36       %
   Gint_k              folding_vl_k        +1340.5        4511      +0.3      +4        %
   Gint_k              Distri              +1330.8        4511      +0.3      +4        %
   Overlap             contributeHR        +15.015        501       +0.03     +0.045    %
   LCAO_gen_fixedH     calculate_S_no      +15.014        501       +0.03     +0.045    %
   Ekinetic<OperatorLCAO>contributeHR        +15.167        501       +0.03     +0.046    %
   Nonlocal<OperatorLCAO>contributeHR        +67.843        501       +0.14     +0.2      %
   LCAO_gen_fixedH     build_Nonlocal_mu_new+205.87        1002      +0.21     +0.62     %
   ORB_gen_tables      snap_psibeta_half   +25.963        13458768  +1.9e-06  +0.078    %
   OperatorLCAO        folding_fixed       +58.247        4511      +0.013    +0.17     %
   LCAO_nnr            folding_fixedH      +56.709        4511      +0.013    +0.17     %
   HSolverLCAO         hamiltSolvePsiK     +321.14        4511      +0.071    +0.96     %
   DiagoElpa           elpa_solve          +316.48        4511      +0.07     +0.95     %
   ElecStateLCAO       psiToRho            +12255         4511      +2.7      +37       %
   elecstate           cal_dm              +16.777        5012      +0.0033   +0.05     %
   psiMulPsiMpi        pdgemm              +15.877        5012      +0.0032   +0.048    %
    Local_Orbital_wfc  wfc_2d_to_grid      +6.409         4511      +0.0014   +0.019    %
   LCAO_Charge         cal_dk_k            +215.99        4511      +0.048    +0.65     %
   Record_adj          for_grid            +5.0851        4511      +0.0011   +0.015    %
   Gint_interface      cal_gint_rho        +10857         4511      +2.4      +33       %
   Charge_Mixing       rhog_dot_product    +2.6141        4511      +0.00058  +0.0079   %
   Charge              mix_rho             +130.48        4010      +0.033    +0.39     %
   Inverse             using_zheev         +0.13889       3509      +4e-05    +0.00042  %
   Force_Stress_LCAO   getForceStress      +5424.8        501       +11       +16       %
   Forces              cal_force_loc       +134.48        501       +0.27     +0.4      %
   Forces              cal_force_ew        +131.49        501       +0.26     +0.39     %
   Forces              cal_force_scc       +170.5         501       +0.34     +0.51     %
   Stress_Func         stress_loc          +43.402        501       +0.087    +0.13     %
   Stress_Func         stress_har          +8.9548        501       +0.018    +0.027    %
   Stress_Func         stress_ewa          +57.192        501       +0.11     +0.17     %
   Stress_Func         stress_gga          +62.339        501       +0.12     +0.19     %
   Force_LCAO_k        ftable_k            +4641.6        501       +9.3      +14       %
   Force_LCAO_k        allocate_k          +241.29        501       +0.48     +0.72     %
   Force_LCAO_k        cal_foverlap_k      +9.1424        501       +0.018    +0.027    %
   Force_LCAO_k        cal_edm_2d          +5.6944        501       +0.011    +0.017    %
   Local_Orbital_Chargecal_dm_R            +1.3562        1002      +0.0014   +0.0041   %
   Force_LCAO_k        cal_ftvnl_dphi_k    +1.0202        501       +0.002    +0.0031   %
   Force_LCAO_k        cal_fvl_dphi_k      +3769.7        501       +7.5      +11       %
   Gint_interface      cal_gint_force      +3769.7        501       +7.5      +11       %
   Force_LCAO_k        cal_fvnl_dbeta_k_new+335.24        501       +0.67     +1        %
   Vdwd3               cal_force           +86.509        501       +0.17     +0.26     %
   Vdwd3               cal_stress          +86.251        501       +0.17     +0.26     %
 ----------------------------------------------------------------------------------------

 CLASS_NAME---------|NAME---------------|MEMORY(MB)--------
                                         +4.126e+04
 ORB_table_phi       Jl(x)               +138.2         
 Charge_Mixing       Rrho                +22.78         
 Charge_Mixing       dRrho               +19.93         
 Charge_Mixing       drho                +19.93         
 Grid_Meshcell       index2normal        +7.451         
 Grid_Meshcell       index2ucell         +7.451         
 stress_lo           dSR                 +5.806         
 PW_Basis            struc_fac           +5.798         
 ORB_table_phi       Table_SR&TR         +3.674         
 allocate_pvpR       pvpR_reduced        +3.091         
 LocalOrbital_Charge Density_Matrix      +3.091         
 force_lo            dS                  +2.903         
 force_lo            dTVNL               +2.903         
 Charge              rho                 +2.848         
 Charge              rho_save            +2.848         
 Charge              rho_core            +2.848         
 Potential           v_effective_fixed   +2.848         
 Potential           vr_eff              +2.848         
 Charge_Mixing       rho_save2           +2.848         
 atoms_on_grid       which_atom          +2.421         
 atoms_on_grid       which_bigcell       +2.421         
 atoms_on_grid       which_unitcell      +2.421         
 init_meshball       meshball_pos        +1.927         
 LocalOrbital_Coef   wfc_k_grid          +1.885         
 Charge              rhog                +1.45          
 Charge              rhog_save           +1.45          
 Charge              kin_r               +1.45          
 Charge              kin_r_save          +1.45          
 Charge              rhog_core           +1.45          
 ORB_table_beta      Table_NR            +1.183         
 ----------------------------------------------------------

 Start  Time  : Mon Mar 20 00:20:22 2023
 Finish Time  : Mon Mar 20 09:35:20 2023
 Total  Time  : 9 h 14 mins 58 secs 
